31
Replica 1 Energy = 0 eV
X 0 1.8075 1.8075
X 0 0 1.8075
X 1.8075 0 0
X 1.8075 1.8075 0
X 0 1.8075 1.8075
X 0 5.4225 5.4225
X 3.615 3.615 5.4225
X 5.4225 3.615 3.615
X 5.4225 5.4225 3.615
X 3.615 5.4225 5.4225
X 3.615 0 1.8075
X 0 1.8075 0
X 1.8075 0 1.8075
X 3.615 5.4225 3.615
X 5.4225 3.615 5.4225
X 3.615 5.4225 1.8075
X 0 1.8075 0
X 1.8075 0 1.8075
X 3.615 5.4225 3.615
X 5.4225 3.615 5.4225
X 3.615 5.4225 0
X 0 1.8075 1.8075
X 3.615 3.615 5.4225
X 5.4225 0 0
X 1.8075 1.8075 3.615
X 3.615 5.4225 5.4225
X 0 1.8075 1.8075
X 3.615 3.615 5.4225
X 5.4225 0 0
X 1.8075 1.8075 3.615
X 3.615 5.4225 5.4225
31
Replica 2 Energy = -82.8787 eV
X 0 1.58156 1.58156
X 0.225938 0.225938 1.58156
X 1.8075 0 0.225938
X 1.58156 1.8075 0.225938
X 0 1.58156 2.03344
X 0.225938 4.97063 5.19656
X 3.38906 3.16312 5.4225
X 4.74469 3.38906 3.84094
X 4.74469 5.19656 3.16312
X 3.38906 5.4225 4.74469
X 3.38906 0.451875 1.8075
X 0 2.25938 0.225938
X 1.58156 0.451875 2.03344
X 3.38906 5.4225 3.615
X 4.97063 3.615 5.4225
X 3.16312 5.4225 2.25938
X 0.451875 1.58156 0
X 2.25938 0 1.8075
X 3.615 4.97063 3.38906
X 5.19656 3.16312 5.19656
X 3.84094 4.97063 0.451875
X 0.677813 1.58156 2.25938
X 3.615 3.38906 5.4225
X 5.19656 0.451875 0
X 2.25938 2.25938 3.16312
X 3.84094 5.19656 4.97063
X 0.451875 2.25938 1.8075
X 3.615 3.615 5.19656
X 5.4225 0.677813 0.451875
X 2.25938 2.03344 3.84094
X 3.615 5.4225 5.4225
31
Replica 3 Energy = 886.64 eV
X 0 1.35563 1.35563
X 0.451875 0.451875 1.35563
X 1.8075 0 0.451875
X 1.35563 1.8075 0.451875
X 0 1.35563 2.25938
X 0.451875 4.51875 4.97063
X 3.16312 2.71125 5.4225
X 4.06688 3.16312 4.06688
X 4.06688 4.97063 2.71125
X 3.16312 5.4225 4.06688
X 3.16312 0.90375 1.8075
X 0 2.71125 0.451875
X 1.35563 0.90375 2.25938
X 3.16312 5.4225 3.615
X 4.51875 3.615 5.4225
X 2.71125 5.4225 2.71125
X 0.90375 1.35563 0
X 2.71125 0 1.8075
X 3.615 4.51875 3.16312
X 4.97063 2.71125 4.97063
X 4.06688 4.51875 0.90375
X 1.35563 1.35563 2.71125
X 3.615 3.16312 5.4225
X 4.97063 0.90375 0
X 2.71125 2.71125 2.71125
X 4.06688 4.97063 4.51875
X 0.90375 2.71125 1.8075
X 3.615 3.615 4.97063
X 5.4225 1.35563 0.90375
X 2.71125 2.25938 4.06688
X 3.615 5.4225 5.4225
31
Replica 4 Energy = 5286.45 eV
X 0 1.12969 1.12969
X 0.677813 0.677813 1.12969
X 1.8075 0 0.677813
X 1.12969 1.8075 0.677813
X 0 1.12969 2.48531
X 0.677813 4.06688 4.74469
X 2.93719 2.25938 5.4225
X 3.38906 2.93719 4.29281
X 3.38906 4.74469 2.25938
X 2.93719 5.4225 3.38906
X 2.93719 1.35563 1.8075
X 0 3.16312 0.677813
X 1.12969 1.35563 2.48531
X 2.93719 5.4225 3.615
X 4.06688 3.615 5.4225
X 2.25938 5.4225 3.16312
X 1.35563 1.12969 0
X 3.16312 0 1.8075
X 3.615 4.06688 2.93719
X 4.74469 2.25938 4.74469
X 4.29281 4.06688 1.35563
X 2.03344 1.12969 3.16312
X 3.615 2.93719 5.4225
X 4.74469 1.35563 0
X 3.16312 3.16312 2.25938
X 4.29281 4.74469 4.06688
X 1.35563 3.16312 1.8075
X 3.615 3.615 4.74469
X 5.4225 2.03344 1.35563
X 3.16312 2.48531 4.29281
X 3.615 5.4225 5.4225
31
Replica 5 Energy = nan eV
X 0 0.90375 0.90375
X 0.90375 0.90375 0.90375
X 1.8075 0 0.90375
X 0.90375 1.8075 0.90375
X 0 0.90375 2.71125
X 0.90375 3.615 4.51875
X 2.71125 1.8075 5.4225
X 2.71125 2.71125 4.51875
X 2.71125 4.51875 1.8075
X 2.71125 5.4225 2.71125
X 2.71125 1.8075 1.8075
X 0 3.615 0.90375
X 0.90375 1.8075 2.71125
X 2.71125 5.4225 3.615
X 3.615 3.615 5.4225
X 1.8075 5.4225 3.615
X 1.8075 0.90375 0
X 3.615 0 1.8075
X 3.615 3.615 2.71125
X 4.51875 1.8075 4.51875
X 4.51875 3.615 1.8075
X 2.71125 0.90375 3.615
X 3.615 2.71125 5.4225
X 4.51875 1.8075 0
X 3.615 3.615 1.8075
X 4.51875 4.51875 3.615
X 1.8075 3.615 1.8075
X 3.615 3.615 4.51875
X 5.4225 2.71125 1.8075
X 3.615 2.71125 4.51875
X 3.615 5.4225 5.4225
31
Replica 6 Energy = 26339.5 eV
X 0 0.677812 0.677812
X 1.12969 1.12969 0.677812
X 1.8075 0 1.12969
X 0.677812 1.8075 1.12969
X 0 0.677812 2.93719
X 1.12969 3.16312 4.29281
X 2.48531 1.35562 5.4225
X 2.03344 2.48531 4.74469
X 2.03344 4.29281 1.35562
X 2.48531 5.4225 2.03344
X 2.48531 2.25938 1.8075
X 0 4.06688 1.12969
X 0.677812 2.25938 2.93719
X 2.48531 5.4225 3.615
X 3.16312 3.615 5.4225
X 1.35562 5.4225 4.06688
X 2.25938 0.677812 0
X 4.06688 0 1.8075
X 3.615 3.16312 2.48531
X 4.29281 1.35562 4.29281
X 4.74469 3.16312 2.25938
X 3.38906 0.677812 4.06688
X 3.615 2.48531 5.4225
X 4.29281 2.25938 0
X 4.06688 4.06688 1.35562
X 4.74469 4.29281 3.16312
X 2.25938 4.06688 1.8075
X 3.615 3.615 4.29281
X 5.4225 3.38906 2.25938
X 4.06688 2.93719 4.74469
X 3.615 5.4225 5.4225
31
Replica 7 Energy = 10671.6 eV
X 0 0.451875 0.451875
X 1.35563 1.35563 0.451875
X 1.8075 0 1.35563
X 0.451875 1.8075 1.35563
X 0 0.451875 3.16312
X 1.35563 2.71125 4.06688
X 2.25938 0.90375 5.4225
X 1.35562 2.25938 4.97063
X 1.35562 4.06688 0.90375
X 2.25938 5.4225 1.35562
X 2.25938 2.71125 1.8075
X 0 4.51875 1.35563
X 0.451875 2.71125 3.16312
X 2.25938 5.4225 3.615
X 2.71125 3.615 5.4225
X 0.90375 5.4225 4.51875
X 2.71125 0.451875 0
X 4.51875 0 1.8075
X 3.615 2.71125 2.25938
X 4.06688 0.90375 4.06688
X 4.97063 2.71125 2.71125
X 4.06688 0.451875 4.51875
X 3.615 2.25938 5.4225
X 4.06688 2.71125 0
X 4.51875 4.51875 0.90375
X 4.97063 4.06688 2.71125
X 2.71125 4.51875 1.8075
X 3.615 3.615 4.06688
X 5.4225 4.06688 2.71125
X 4.51875 3.16312 4.97063
X 3.615 5.4225 5.4225
31
Replica 8 Energy = 12746.4 eV
X 0 0.225938 0.225938
X 1.58156 1.58156 0.225938
X 1.8075 0 1.58156
X 0.225938 1.8075 1.58156
X 0 0.225938 3.38906
X 1.58156 2.25938 3.84094
X 2.03344 0.451875 5.4225
X 0.677812 2.03344 5.19656
X 0.677812 3.84094 0.451875
X 2.03344 5.4225 0.677812
X 2.03344 3.16312 1.8075
X 0 4.97063 1.58156
X 0.225938 3.16312 3.38906
X 2.03344 5.4225 3.615
X 2.25938 3.615 5.4225
X 0.451875 5.4225 4.97063
X 3.16312 0.225938 0
X 4.97063 0 1.8075
X 3.615 2.25938 2.03344
X 3.84094 0.451875 3.84094
X 5.19656 2.25938 3.16312
X 4.74469 0.225938 4.97063
X 3.615 2.03344 5.4225
X 3.84094 3.16312 0
X 4.97063 4.97063 0.451875
X 5.19656 3.84094 2.25938
X 3.16312 4.97063 1.8075
X 3.615 3.615 3.84094
X 5.4225 4.74469 3.16312
X 4.97063 3.38906 5.19656
X 3.615 5.4225 5.4225
31
Replica 9 Energy = 0 eV
X 0 0 0
X 1.8075 1.8075 0
X 1.8075 0 1.8075
X 0 1.8075 1.8075
X 0 0 3.615
X 1.8075 1.8075 3.615
X 1.8075 0 5.4225
X 0 1.8075 5.4225
X 0 3.615 0
X 1.8075 5.4225 0
X 1.8075 3.615 1.8075
X 0 5.4225 1.8075
X 0 3.615 3.615
X 1.8075 5.4225 3.615
X 1.8075 3.615 5.4225
X 0 5.4225 5.4225
X 3.615 0 0
X 5.4225 0 1.8075
X 3.615 1.8075 1.8075
X 3.615 0 3.615
X 5.4225 1.8075 3.615
X 5.4225 0 5.4225
X 3.615 1.8075 5.4225
X 3.615 3.615 0
X 5.4225 5.4225 0
X 5.4225 3.615 1.8075
X 3.615 5.4225 1.8075
X 3.615 3.615 3.615
X 5.4225 5.4225 3.615
X 5.4225 3.615 5.4225
X 3.615 5.4225 5.4225
