255
Replica 1 Energy = 0 eV
X 0 1.8075 1.8075
X 0 0 1.8075
X 1.8075 0 0
X 1.8075 1.8075 0
X 0 1.8075 1.8075
X 0 0 1.8075
X 1.8075 0 0
X 1.8075 1.8075 0
X 0 1.8075 1.8075
X 0 0 1.8075
X 1.8075 0 0
X 1.8075 1.8075 0
X 0 1.8075 1.8075
X 0 0 1.8075
X 1.8075 0 0
X 1.8075 1.8075 0
X 0 1.8075 1.8075
X 0 0 1.8075
X 1.8075 0 0
X 1.8075 1.8075 0
X 0 1.8075 1.8075
X 0 3.615 5.4225
X 5.4225 3.615 3.615
X 5.4225 5.4225 3.615
X 3.615 5.4225 5.4225
X 3.615 3.615 5.4225
X 5.4225 3.615 3.615
X 5.4225 5.4225 3.615
X 3.615 5.4225 5.4225
X 3.615 3.615 5.4225
X 5.4225 3.615 3.615
X 5.4225 5.4225 3.615
X 3.615 5.4225 5.4225
X 3.615 3.615 5.4225
X 5.4225 3.615 3.615
X 5.4225 5.4225 3.615
X 3.615 5.4225 5.4225
X 3.615 3.615 5.4225
X 5.4225 3.615 3.615
X 5.4225 5.4225 3.615
X 3.615 5.4225 5.4225
X 3.615 3.615 5.4225
X 5.4225 3.615 9.0375
X 9.0375 7.23 7.23
X 9.0375 9.0375 7.23
X 7.23 9.0375 9.0375
X 7.23 7.23 9.0375
X 9.0375 7.23 7.23
X 9.0375 9.0375 7.23
X 7.23 9.0375 9.0375
X 7.23 7.23 9.0375
X 9.0375 7.23 7.23
X 9.0375 9.0375 7.23
X 7.23 9.0375 9.0375
X 7.23 7.23 9.0375
X 9.0375 7.23 7.23
X 9.0375 9.0375 7.23
X 7.23 9.0375 9.0375
X 7.23 7.23 9.0375
X 9.0375 7.23 7.23
X 9.0375 9.0375 7.23
X 7.23 9.0375 9.0375
X 7.23 7.23 9.0375
X 9.0375 7.23 10.845
X 12.6525 12.6525 10.845
X 10.845 12.6525 12.6525
X 10.845 10.845 12.6525
X 12.6525 10.845 10.845
X 12.6525 12.6525 10.845
X 10.845 12.6525 12.6525
X 10.845 10.845 12.6525
X 12.6525 10.845 10.845
X 12.6525 12.6525 10.845
X 10.845 12.6525 12.6525
X 10.845 10.845 12.6525
X 12.6525 10.845 10.845
X 12.6525 12.6525 10.845
X 10.845 12.6525 12.6525
X 10.845 10.845 12.6525
X 12.6525 10.845 10.845
X 12.6525 12.6525 10.845
X 10.845 12.6525 12.6525
X 10.845 10.845 12.6525
X 12.6525 10.845 10.845
X 12.6525 12.6525 10.845
X 0 1.8075 0
X 1.8075 0 1.8075
X 0 1.8075 0
X 1.8075 0 1.8075
X 0 1.8075 0
X 1.8075 3.615 5.4225
X 3.615 5.4225 3.615
X 5.4225 3.615 5.4225
X 3.615 5.4225 3.615
X 5.4225 3.615 5.4225
X 3.615 5.4225 7.23
X 9.0375 7.23 9.0375
X 7.23 9.0375 7.23
X 9.0375 7.23 9.0375
X 7.23 9.0375 7.23
X 9.0375 7.23 9.0375
X 10.845 12.6525 10.845
X 12.6525 10.845 12.6525
X 10.845 12.6525 10.845
X 12.6525 10.845 12.6525
X 10.845 12.6525 10.845
X 12.6525 0 1.8075
X 0 1.8075 0
X 1.8075 0 1.8075
X 0 1.8075 0
X 1.8075 0 1.8075
X 0 1.8075 3.615
X 5.4225 3.615 5.4225
X 3.615 5.4225 3.615
X 5.4225 3.615 5.4225
X 3.615 5.4225 3.615
X 5.4225 3.615 5.4225
X 7.23 9.0375 7.23
X 9.0375 7.23 9.0375
X 7.23 9.0375 7.23
X 9.0375 7.23 9.0375
X 7.23 9.0375 7.23
X 9.0375 10.845 12.6525
X 10.845 12.6525 10.845
X 12.6525 10.845 12.6525
X 10.845 12.6525 10.845
X 12.6525 10.845 12.6525
X 10.845 12.6525 1.8075
X 0 1.8075 0
X 1.8075 0 1.8075
X 0 1.8075 0
X 1.8075 0 1.8075
X 0 1.8075 3.615
X 5.4225 3.615 5.4225
X 3.615 5.4225 3.615
X 5.4225 3.615 5.4225
X 3.615 5.4225 3.615
X 5.4225 3.615 5.4225
X 7.23 9.0375 7.23
X 9.0375 7.23 9.0375
X 7.23 9.0375 7.23
X 9.0375 7.23 9.0375
X 7.23 9.0375 7.23
X 9.0375 10.845 12.6525
X 10.845 12.6525 10.845
X 12.6525 10.845 12.6525
X 10.845 12.6525 10.845
X 12.6525 10.845 12.6525
X 10.845 12.6525 0
X 1.8075 0 1.8075
X 0 1.8075 0
X 1.8075 0 1.8075
X 0 1.8075 0
X 1.8075 0 1.8075
X 3.615 5.4225 3.615
X 5.4225 3.615 5.4225
X 3.615 5.4225 3.615
X 5.4225 3.615 5.4225
X 3.615 5.4225 3.615
X 5.4225 7.23 9.0375
X 7.23 9.0375 7.23
X 9.0375 7.23 9.0375
X 7.23 9.0375 7.23
X 9.0375 7.23 9.0375
X 7.23 9.0375 10.845
X 12.6525 10.845 12.6525
X 10.845 12.6525 10.845
X 12.6525 10.845 12.6525
X 10.845 12.6525 10.845
X 12.6525 10.845 12.6525
X 0 0 1.8075
X 1.8075 3.615 3.615
X 5.4225 5.4225 7.23
X 7.23 9.0375 9.0375
X 10.845 10.845 12.6525
X 12.6525 0 0
X 1.8075 1.8075 3.615
X 3.615 5.4225 5.4225
X 7.23 7.23 9.0375
X 9.0375 10.845 10.845
X 12.6525 12.6525 0
X 0 1.8075 1.8075
X 3.615 3.615 5.4225
X 5.4225 7.23 7.23
X 9.0375 9.0375 10.845
X 10.845 12.6525 12.6525
X 0 0 1.8075
X 1.8075 3.615 3.615
X 5.4225 5.4225 7.23
X 7.23 9.0375 9.0375
X 10.845 10.845 12.6525
X 12.6525 0 0
X 1.8075 1.8075 3.615
X 3.615 5.4225 5.4225
X 7.23 7.23 9.0375
X 9.0375 10.845 10.845
X 12.6525 12.6525 0
X 0 1.8075 1.8075
X 3.615 3.615 5.4225
X 5.4225 7.23 7.23
X 9.0375 9.0375 10.845
X 10.845 12.6525 12.6525
X 0 0 1.8075
X 1.8075 3.615 3.615
X 5.4225 5.4225 7.23
X 7.23 9.0375 9.0375
X 10.845 10.845 12.6525
X 12.6525 0 0
X 1.8075 1.8075 3.615
X 3.615 5.4225 5.4225
X 7.23 7.23 9.0375
X 9.0375 10.845 10.845
X 12.6525 12.6525 0
X 1.8075 1.8075 3.615
X 3.615 5.4225 5.4225
X 7.23 7.23 9.0375
X 9.0375 10.845 10.845
X 12.6525 12.6525 0
X 0 1.8075 1.8075
X 3.615 3.615 5.4225
X 5.4225 7.23 7.23
X 9.0375 9.0375 10.845
X 10.845 12.6525 12.6525
X 0 0 1.8075
X 1.8075 3.615 3.615
X 5.4225 5.4225 7.23
X 7.23 9.0375 9.0375
X 10.845 10.845 12.6525
X 12.6525 0 0
X 1.8075 1.8075 3.615
X 3.615 5.4225 5.4225
X 7.23 7.23 9.0375
X 9.0375 10.845 10.845
X 12.6525 12.6525 0
X 0 1.8075 1.8075
X 3.615 3.615 5.4225
X 5.4225 7.23 7.23
X 9.0375 9.0375 10.845
X 10.845 12.6525 12.6525
X 0 0 1.8075
X 1.8075 3.615 3.615
X 5.4225 5.4225 7.23
X 7.23 9.0375 9.0375
X 10.845 10.845 12.6525
X 12.6525 0 0
X 1.8075 1.8075 3.615
X 3.615 5.4225 5.4225
X 7.23 7.23 9.0375
X 9.0375 10.845 10.845
X 12.6525 12.6525 0
X 0 1.8075 1.8075
X 3.615 3.615 5.4225
X 5.4225 7.23 7.23
X 9.0375 9.0375 10.845
X 10.845 12.6525 12.6525
255
Replica 2 Energy = 13440.7 eV
X 0 1.50625 1.50625
X 0.30125 0.30125 1.50625
X 1.8075 0 0.30125
X 1.50625 1.8075 0.30125
X 0 1.50625 2.10875
X 0.30125 0.30125 2.10875
X 1.8075 0 0.90375
X 1.50625 1.8075 0.90375
X 0 1.50625 2.71125
X 0.30125 0.30125 2.71125
X 1.8075 0 1.50625
X 1.50625 1.8075 1.50625
X 0 1.50625 3.31375
X 0.30125 0.30125 3.31375
X 1.8075 0 2.10875
X 1.50625 1.8075 2.10875
X 0 2.10875 1.50625
X 0.30125 0.90375 1.50625
X 1.8075 0.6025 0.30125
X 1.50625 2.41 0.30125
X 0 2.10875 2.10875
X 0.30125 3.91625 5.12125
X 4.82 3.615 3.91625
X 4.51875 5.4225 3.91625
X 3.0125 5.12125 5.72375
X 3.31375 3.91625 5.72375
X 4.82 3.615 4.51875
X 4.51875 5.4225 4.51875
X 3.0125 5.12125 6.32625
X 3.31375 3.91625 6.32625
X 4.82 3.615 5.12125
X 4.51875 5.4225 5.12125
X 3.0125 5.72375 4.51875
X 3.31375 4.51875 4.51875
X 4.82 4.2175 3.31375
X 4.51875 6.025 3.31375
X 3.0125 5.72375 5.12125
X 3.31375 4.51875 5.12125
X 4.82 4.2175 3.91625
X 4.51875 6.025 3.91625
X 3.0125 5.72375 5.72375
X 3.31375 4.51875 5.72375
X 4.82 4.2175 9.0375
X 7.53125 7.53125 7.53125
X 7.53125 8.73625 7.8325
X 6.32625 9.0375 9.33875
X 6.32625 7.23 9.64
X 7.53125 7.53125 8.13375
X 7.53125 9.33875 6.025
X 6.32625 9.64 7.53125
X 6.32625 7.8325 7.8325
X 7.53125 8.13375 6.32625
X 7.53125 9.33875 6.6275
X 6.32625 9.64 8.13375
X 6.32625 7.8325 8.435
X 7.53125 8.13375 6.92875
X 7.53125 9.33875 7.23
X 6.32625 9.64 8.73625
X 6.32625 7.8325 9.0375
X 7.53125 8.13375 7.53125
X 7.53125 9.33875 7.8325
X 6.32625 9.64 9.33875
X 6.32625 7.8325 9.64
X 7.53125 8.13375 11.1463
X 11.1463 10.5437 9.0375
X 9.94125 10.845 10.5437
X 9.94125 9.0375 10.845
X 11.1463 9.33875 9.33875
X 11.1463 10.5437 9.64
X 9.94125 10.845 11.1463
X 9.94125 9.0375 11.4475
X 11.1463 9.33875 9.94125
X 11.1463 10.5437 10.2425
X 9.94125 10.845 11.7487
X 9.94125 9.0375 12.05
X 11.1463 9.33875 10.5438
X 11.1463 10.5437 10.845
X 9.94125 10.845 12.3513
X 9.94125 9.0375 12.6525
X 11.1463 9.33875 11.1463
X 11.1463 11.1463 9.0375
X 9.94125 11.4475 10.5437
X 9.94125 9.64 10.845
X 11.1463 9.94125 9.33875
X 11.1463 11.1463 9.64
X 0.90375 2.41 0.6025
X 2.41 0.6025 2.41
X 0.6025 2.41 0.90375
X 2.10875 0.6025 2.71125
X 0.90375 2.41 1.205
X 2.41 3.615 6.025
X 3.615 5.4225 4.51875
X 5.12125 3.615 6.32625
X 3.91625 5.4225 4.82
X 5.4225 3.615 6.6275
X 3.615 5.4225 8.13375
X 8.13375 7.23 7.53125
X 6.92875 9.0375 6.025
X 8.435 7.23 7.8325
X 6.6275 9.0375 6.32625
X 8.13375 7.23 8.13375
X 9.94125 12.05 9.64
X 11.4475 10.2425 11.4475
X 9.64 12.05 9.94125
X 11.1463 10.2425 11.7487
X 9.94125 12.05 10.2425
X 11.4475 1.205 3.0125
X 0.6025 3.0125 1.50625
X 2.10875 1.205 3.31375
X 0.90375 3.0125 1.8075
X 2.41 1.205 3.615
X 0.6025 3.0125 5.12125
X 5.12125 4.82 4.51875
X 3.91625 6.6275 3.0125
X 5.4225 4.82 4.82
X 3.615 6.6275 3.31375
X 5.12125 4.82 5.12125
X 6.92875 9.64 6.6275
X 8.435 7.8325 8.435
X 6.6275 9.64 6.92875
X 8.13375 7.8325 8.73625
X 6.92875 9.64 7.23
X 8.435 10.845 12.05
X 9.64 12.6525 10.5438
X 11.1463 10.845 12.3513
X 9.94125 12.6525 10.845
X 11.4475 10.845 12.6525
X 9.64 12.6525 3.615
X 1.205 1.50625 0
X 3.0125 0 1.8075
X 1.205 1.8075 0.30125
X 2.71125 0 2.10875
X 1.50625 1.8075 3.615
X 6.025 3.0125 5.4225
X 4.2175 4.82 3.91625
X 5.72375 3.0125 5.72375
X 4.51875 4.82 4.2175
X 6.025 3.0125 6.025
X 7.23 7.8325 7.53125
X 8.73625 6.025 9.33875
X 7.53125 7.8325 7.8325
X 9.0375 6.025 9.64
X 7.23 7.8325 8.13375
X 8.73625 9.64 10.5437
X 10.5438 11.4475 9.0375
X 12.05 9.64 10.845
X 10.2425 11.4475 9.33875
X 11.7487 9.64 11.1463
X 10.5438 11.4475 0.6025
X 3.0125 0.6025 2.41
X 1.205 2.41 0.90375
X 2.71125 0.6025 2.71125
X 1.50625 2.41 1.205
X 3.0125 0.6025 3.0125
X 4.2175 5.4225 4.51875
X 5.72375 3.615 6.32625
X 4.51875 5.4225 4.82
X 6.025 3.615 6.6275
X 4.2175 5.4225 5.12125
X 5.72375 7.23 7.53125
X 7.53125 9.0375 6.025
X 9.0375 7.23 7.8325
X 7.23 9.0375 6.32625
X 8.73625 7.23 8.13375
X 7.53125 9.0375 9.64
X 12.05 10.2425 11.4475
X 10.2425 12.05 9.94125
X 11.7487 10.2425 11.7487
X 10.5438 12.05 10.2425
X 12.05 10.2425 12.05
X 1.205 1.50625 3.0125
X 2.71125 4.2175 4.82
X 6.025 6.025 7.8325
X 7.53125 8.73625 9.64
X 10.2425 10.5438 12.6525
X 11.7487 1.8075 0
X 3.0125 3.615 3.0125
X 4.51875 6.32625 4.82
X 7.23 8.13375 7.8325
X 8.73625 10.845 9.64
X 12.05 12.6525 0.6025
X 1.50625 3.31375 2.41
X 4.2175 5.12125 5.4225
X 5.72375 7.8325 7.23
X 9.0375 9.64 10.2425
X 10.5438 12.3513 12.05
X 1.205 2.10875 3.0125
X 2.71125 4.82 4.82
X 6.025 6.6275 7.8325
X 7.53125 9.33875 9.64
X 10.2425 11.1463 12.6525
X 12.3513 0 0
X 3.615 1.8075 3.0125
X 5.12125 4.51875 4.82
X 7.8325 6.32625 7.8325
X 9.33875 9.0375 9.64
X 12.6525 10.845 0.6025
X 2.10875 1.50625 2.41
X 4.82 3.31375 5.4225
X 6.32625 6.025 7.23
X 9.64 7.8325 10.2425
X 11.1463 10.5437 12.05
X 1.8075 0.30125 3.0125
X 3.31375 3.0125 4.82
X 6.6275 4.82 7.8325
X 8.13375 7.53125 9.64
X 10.845 9.33875 12.6525
X 12.3513 0.6025 0
X 3.615 2.41 3.0125
X 5.12125 5.12125 4.82
X 7.8325 6.92875 7.8325
X 9.33875 9.64 9.64
X 12.6525 11.4475 0.6025
X 3.615 2.10875 3.91625
X 4.82 5.4225 5.4225
X 7.8325 6.6275 8.73625
X 9.64 9.94125 10.2425
X 12.6525 11.1463 1.50625
X 1.8075 2.41 3.0125
X 4.82 3.615 6.32625
X 6.6275 6.92875 7.8325
X 9.64 8.13375 11.1463
X 10.845 11.4475 12.6525
X 1.8075 1.205 1.50625
X 3.615 4.51875 3.0125
X 6.6275 5.72375 6.32625
X 7.8325 9.0375 7.8325
X 10.845 10.2425 11.1463
X 12.6525 1.50625 0.6025
X 3.615 2.71125 3.91625
X 4.82 6.025 5.4225
X 7.8325 7.23 8.73625
X 9.64 10.5438 10.2425
X 12.6525 11.7487 1.50625
X 1.8075 3.0125 3.0125
X 4.82 4.2175 6.32625
X 6.6275 7.53125 7.8325
X 9.64 8.73625 11.1463
X 10.845 12.05 12.6525
X 1.8075 1.8075 1.50625
X 3.615 5.12125 3.0125
X 6.6275 6.32625 6.32625
X 7.8325 9.64 7.8325
X 10.845 10.845 11.1463
X 12.6525 2.10875 0.6025
X 3.615 3.31375 3.91625
X 4.82 6.6275 5.4225
X 7.8325 7.8325 8.73625
X 9.64 11.1463 10.2425
X 12.6525 12.3513 1.50625
X 1.8075 3.615 3.0125
X 4.82 4.82 6.32625
X 6.6275 8.13375 7.8325
X 9.64 9.33875 11.1463
X 10.845 12.6525 12.6525
255
Replica 3 Energy = 1.36348e+19 eV
X 0 1.205 1.205
X 0.6025 0.6025 1.205
X 1.8075 0 0.6025
X 1.205 1.8075 0.6025
X 0 1.205 2.41
X 0.6025 0.6025 2.41
X 1.8075 0 1.8075
X 1.205 1.8075 1.8075
X 0 1.205 3.615
X 0.6025 0.6025 3.615
X 1.8075 0 3.0125
X 1.205 1.8075 3.0125
X 0 1.205 4.82
X 0.6025 0.6025 4.82
X 1.8075 0 4.2175
X 1.205 1.8075 4.2175
X 0 2.41 1.205
X 0.6025 1.8075 1.205
X 1.8075 1.205 0.6025
X 1.205 3.0125 0.6025
X 0 2.41 2.41
X 0.6025 4.2175 4.82
X 4.2175 3.615 4.2175
X 3.615 5.4225 4.2175
X 2.41 4.82 6.025
X 3.0125 4.2175 6.025
X 4.2175 3.615 5.4225
X 3.615 5.4225 5.4225
X 2.41 4.82 7.23
X 3.0125 4.2175 7.23
X 4.2175 3.615 6.6275
X 3.615 5.4225 6.6275
X 2.41 6.025 3.615
X 3.0125 5.4225 3.615
X 4.2175 4.82 3.0125
X 3.615 6.6275 3.0125
X 2.41 6.025 4.82
X 3.0125 5.4225 4.82
X 4.2175 4.82 4.2175
X 3.615 6.6275 4.2175
X 2.41 6.025 6.025
X 3.0125 5.4225 6.025
X 4.2175 4.82 9.0375
X 6.025 7.8325 7.8325
X 6.025 8.435 8.435
X 5.4225 9.0375 9.64
X 5.4225 7.23 10.2425
X 6.025 7.8325 9.0375
X 6.025 9.64 4.82
X 5.4225 10.2425 6.025
X 5.4225 8.435 6.6275
X 6.025 9.0375 5.4225
X 6.025 9.64 6.025
X 5.4225 10.2425 7.23
X 5.4225 8.435 7.8325
X 6.025 9.0375 6.6275
X 6.025 9.64 7.23
X 5.4225 10.2425 8.435
X 5.4225 8.435 9.0375
X 6.025 9.0375 7.8325
X 6.025 9.64 8.435
X 5.4225 10.2425 9.64
X 5.4225 8.435 10.2425
X 6.025 9.0375 11.4475
X 9.64 8.435 7.23
X 9.0375 9.0375 8.435
X 9.0375 7.23 9.0375
X 9.64 7.8325 7.8325
X 9.64 8.435 8.435
X 9.0375 9.0375 9.64
X 9.0375 7.23 10.2425
X 9.64 7.8325 9.0375
X 9.64 8.435 9.64
X 9.0375 9.0375 10.845
X 9.0375 7.23 11.4475
X 9.64 7.8325 10.2425
X 9.64 8.435 10.845
X 9.0375 9.0375 12.05
X 9.0375 7.23 12.6525
X 9.64 7.8325 11.4475
X 9.64 9.64 7.23
X 9.0375 10.2425 8.435
X 9.0375 8.435 9.0375
X 9.64 9.0375 7.8325
X 9.64 9.64 8.435
X 1.8075 3.0125 1.205
X 3.0125 1.205 3.0125
X 1.205 3.0125 1.8075
X 2.41 1.205 3.615
X 1.8075 3.0125 2.41
X 3.0125 3.615 6.6275
X 3.615 5.4225 5.4225
X 4.82 3.615 7.23
X 4.2175 5.4225 6.025
X 5.4225 3.615 7.8325
X 3.615 5.4225 9.0375
X 7.23 7.23 6.025
X 6.6275 9.0375 4.82
X 7.8325 7.23 6.6275
X 6.025 9.0375 5.4225
X 7.23 7.23 7.23
X 9.0375 11.4475 8.435
X 10.2425 9.64 10.2425
X 8.435 11.4475 9.0375
X 9.64 9.64 10.845
X 9.0375 11.4475 9.64
X 10.2425 2.41 4.2175
X 1.205 4.2175 3.0125
X 2.41 2.41 4.82
X 1.8075 4.2175 3.615
X 3.0125 2.41 5.4225
X 1.205 4.2175 6.6275
X 4.82 6.025 3.615
X 4.2175 7.8325 2.41
X 5.4225 6.025 4.2175
X 3.615 7.8325 3.0125
X 4.82 6.025 4.82
X 6.6275 10.2425 6.025
X 7.8325 8.435 7.8325
X 6.025 10.2425 6.6275
X 7.23 8.435 8.435
X 6.6275 10.2425 7.23
X 7.8325 10.845 11.4475
X 8.435 12.6525 10.2425
X 9.64 10.845 12.05
X 9.0375 12.6525 10.845
X 10.2425 10.845 12.6525
X 8.435 12.6525 5.4225
X 2.41 1.205 0
X 4.2175 0 1.8075
X 2.41 1.8075 0.6025
X 3.615 0 2.41
X 3.0125 1.8075 3.615
X 6.6275 2.41 5.4225
X 4.82 4.2175 4.2175
X 6.025 2.41 6.025
X 5.4225 4.2175 4.82
X 6.6275 2.41 6.6275
X 7.23 6.6275 7.8325
X 8.435 4.82 9.64
X 7.8325 6.6275 8.435
X 9.0375 4.82 10.2425
X 7.23 6.6275 9.0375
X 8.435 8.435 8.435
X 10.2425 10.2425 7.23
X 11.4475 8.435 9.0375
X 9.64 10.2425 7.8325
X 10.845 8.435 9.64
X 10.2425 10.2425 1.205
X 4.2175 1.205 3.0125
X 2.41 3.0125 1.8075
X 3.615 1.205 3.615
X 3.0125 3.0125 2.41
X 4.2175 1.205 4.2175
X 4.82 5.4225 5.4225
X 6.025 3.615 7.23
X 5.4225 5.4225 6.025
X 6.6275 3.615 7.8325
X 4.82 5.4225 6.6275
X 6.025 7.23 6.025
X 7.8325 9.0375 4.82
X 9.0375 7.23 6.6275
X 7.23 9.0375 5.4225
X 8.435 7.23 7.23
X 7.8325 9.0375 8.435
X 11.4475 9.64 10.2425
X 9.64 11.4475 9.0375
X 10.845 9.64 10.845
X 10.2425 11.4475 9.64
X 11.4475 9.64 11.4475
X 2.41 3.0125 4.2175
X 3.615 4.82 6.025
X 6.6275 6.6275 8.435
X 7.8325 8.435 10.2425
X 9.64 10.2425 12.6525
X 10.845 3.615 0
X 4.2175 5.4225 2.41
X 5.4225 7.23 4.2175
X 7.23 9.0375 6.6275
X 8.435 10.845 8.435
X 11.4475 12.6525 1.205
X 3.0125 4.82 3.0125
X 4.82 6.6275 5.4225
X 6.025 8.435 7.23
X 9.0375 10.2425 9.64
X 10.2425 12.05 11.4475
X 2.41 4.2175 4.2175
X 3.615 6.025 6.025
X 6.6275 7.8325 8.435
X 7.8325 9.64 10.2425
X 9.64 11.4475 12.6525
X 12.05 0 0
X 5.4225 1.8075 2.41
X 6.6275 3.615 4.2175
X 8.435 5.4225 6.6275
X 9.64 7.23 8.435
X 12.6525 9.0375 1.205
X 4.2175 1.205 3.0125
X 6.025 3.0125 5.4225
X 7.23 4.82 7.23
X 10.2425 6.6275 9.64
X 11.4475 8.435 11.4475
X 3.615 0.6025 4.2175
X 4.82 2.41 6.025
X 7.8325 4.2175 8.435
X 9.0375 6.025 10.2425
X 10.845 7.8325 12.6525
X 12.05 1.205 0
X 5.4225 3.0125 2.41
X 6.6275 4.82 4.2175
X 8.435 6.6275 6.6275
X 9.64 8.435 8.435
X 12.6525 10.2425 1.205
X 5.4225 2.41 4.2175
X 6.025 5.4225 5.4225
X 8.435 6.025 8.435
X 10.2425 9.0375 9.64
X 12.6525 9.64 3.0125
X 3.615 3.0125 4.2175
X 6.025 3.615 7.23
X 7.8325 6.6275 8.435
X 10.2425 7.23 11.4475
X 10.845 10.2425 12.6525
X 3.615 2.41 1.205
X 5.4225 5.4225 2.41
X 7.8325 6.025 5.4225
X 8.435 9.0375 6.6275
X 10.845 9.64 9.64
X 12.6525 3.0125 1.205
X 5.4225 3.615 4.2175
X 6.025 6.6275 5.4225
X 8.435 7.23 8.435
X 10.2425 10.2425 9.64
X 12.6525 10.845 3.0125
X 3.615 4.2175 4.2175
X 6.025 4.82 7.23
X 7.8325 7.8325 8.435
X 10.2425 8.435 11.4475
X 10.845 11.4475 12.6525
X 3.615 3.615 1.205
X 5.4225 6.6275 2.41
X 7.8325 7.23 5.4225
X 8.435 10.2425 6.6275
X 10.845 10.845 9.64
X 12.6525 4.2175 1.205
X 5.4225 4.82 4.2175
X 6.025 7.8325 5.4225
X 8.435 8.435 8.435
X 10.2425 11.4475 9.64
X 12.6525 12.05 3.0125
X 3.615 5.4225 4.2175
X 6.025 6.025 7.23
X 7.8325 9.0375 8.435
X 10.2425 9.64 11.4475
X 10.845 12.6525 12.6525
255
Replica 4 Energy = nan eV
X 0 0.90375 0.90375
X 0.90375 0.90375 0.90375
X 1.8075 0 0.90375
X 0.90375 1.8075 0.90375
X 0 0.90375 2.71125
X 0.90375 0.90375 2.71125
X 1.8075 0 2.71125
X 0.90375 1.8075 2.71125
X 0 0.90375 4.51875
X 0.90375 0.90375 4.51875
X 1.8075 0 4.51875
X 0.90375 1.8075 4.51875
X 0 0.90375 6.32625
X 0.90375 0.90375 6.32625
X 1.8075 0 6.32625
X 0.90375 1.8075 6.32625
X 0 2.71125 0.90375
X 0.90375 2.71125 0.90375
X 1.8075 1.8075 0.90375
X 0.90375 3.615 0.90375
X 0 2.71125 2.71125
X 0.90375 4.51875 4.51875
X 3.615 3.615 4.51875
X 2.71125 5.4225 4.51875
X 1.8075 4.51875 6.32625
X 2.71125 4.51875 6.32625
X 3.615 3.615 6.32625
X 2.71125 5.4225 6.32625
X 1.8075 4.51875 8.13375
X 2.71125 4.51875 8.13375
X 3.615 3.615 8.13375
X 2.71125 5.4225 8.13375
X 1.8075 6.32625 2.71125
X 2.71125 6.32625 2.71125
X 3.615 5.4225 2.71125
X 2.71125 7.23 2.71125
X 1.8075 6.32625 4.51875
X 2.71125 6.32625 4.51875
X 3.615 5.4225 4.51875
X 2.71125 7.23 4.51875
X 1.8075 6.32625 6.32625
X 2.71125 6.32625 6.32625
X 3.615 5.4225 9.0375
X 4.51875 8.13375 8.13375
X 4.51875 8.13375 9.0375
X 4.51875 9.0375 9.94125
X 4.51875 7.23 10.845
X 4.51875 8.13375 9.94125
X 4.51875 9.94125 3.615
X 4.51875 10.845 4.51875
X 4.51875 9.0375 5.4225
X 4.51875 9.94125 4.51875
X 4.51875 9.94125 5.4225
X 4.51875 10.845 6.32625
X 4.51875 9.0375 7.23
X 4.51875 9.94125 6.32625
X 4.51875 9.94125 7.23
X 4.51875 10.845 8.13375
X 4.51875 9.0375 9.0375
X 4.51875 9.94125 8.13375
X 4.51875 9.94125 9.0375
X 4.51875 10.845 9.94125
X 4.51875 9.0375 10.845
X 4.51875 9.94125 11.7488
X 8.13375 6.32625 5.4225
X 8.13375 7.23 6.32625
X 8.13375 5.4225 7.23
X 8.13375 6.32625 6.32625
X 8.13375 6.32625 7.23
X 8.13375 7.23 8.13375
X 8.13375 5.4225 9.0375
X 8.13375 6.32625 8.13375
X 8.13375 6.32625 9.0375
X 8.13375 7.23 9.94125
X 8.13375 5.4225 10.845
X 8.13375 6.32625 9.94125
X 8.13375 6.32625 10.845
X 8.13375 7.23 11.7488
X 8.13375 5.4225 12.6525
X 8.13375 6.32625 11.7488
X 8.13375 8.13375 5.4225
X 8.13375 9.0375 6.32625
X 8.13375 7.23 7.23
X 8.13375 8.13375 6.32625
X 8.13375 8.13375 7.23
X 2.71125 3.615 1.8075
X 3.615 1.8075 3.615
X 1.8075 3.615 2.71125
X 2.71125 1.8075 4.51875
X 2.71125 3.615 3.615
X 3.615 3.615 7.23
X 3.615 5.4225 6.32625
X 4.51875 3.615 8.13375
X 4.51875 5.4225 7.23
X 5.4225 3.615 9.0375
X 3.615 5.4225 9.94125
X 6.32625 7.23 4.51875
X 6.32625 9.0375 3.615
X 7.23 7.23 5.4225
X 5.4225 9.0375 4.51875
X 6.32625 7.23 6.32625
X 8.13375 10.845 7.23
X 9.0375 9.0375 9.0375
X 7.23 10.845 8.13375
X 8.13375 9.0375 9.94125
X 8.13375 10.845 9.0375
X 9.0375 3.615 5.4225
X 1.8075 5.4225 4.51875
X 2.71125 3.615 6.32625
X 2.71125 5.4225 5.4225
X 3.615 3.615 7.23
X 1.8075 5.4225 8.13375
X 4.51875 7.23 2.71125
X 4.51875 9.0375 1.8075
X 5.4225 7.23 3.615
X 3.615 9.0375 2.71125
X 4.51875 7.23 4.51875
X 6.32625 10.845 5.4225
X 7.23 9.0375 7.23
X 5.4225 10.845 6.32625
X 6.32625 9.0375 8.13375
X 6.32625 10.845 7.23
X 7.23 10.845 10.845
X 7.23 12.6525 9.94125
X 8.13375 10.845 11.7488
X 8.13375 12.6525 10.845
X 9.0375 10.845 12.6525
X 7.23 12.6525 7.23
X 3.615 0.90375 0
X 5.4225 0 1.8075
X 3.615 1.8075 0.90375
X 4.51875 0 2.71125
X 4.51875 1.8075 3.615
X 7.23 1.8075 5.4225
X 5.4225 3.615 4.51875
X 6.32625 1.8075 6.32625
X 6.32625 3.615 5.4225
X 7.23 1.8075 7.23
X 7.23 5.4225 8.13375
X 8.13375 3.615 9.94125
X 8.13375 5.4225 9.0375
X 9.0375 3.615 10.845
X 7.23 5.4225 9.94125
X 8.13375 7.23 6.32625
X 9.94125 9.0375 5.4225
X 10.845 7.23 7.23
X 9.0375 9.0375 6.32625
X 9.94125 7.23 8.13375
X 9.94125 9.0375 1.8075
X 5.4225 1.8075 3.615
X 3.615 3.615 2.71125
X 4.51875 1.8075 4.51875
X 4.51875 3.615 3.615
X 5.4225 1.8075 5.4225
X 5.4225 5.4225 6.32625
X 6.32625 3.615 8.13375
X 6.32625 5.4225 7.23
X 7.23 3.615 9.0375
X 5.4225 5.4225 8.13375
X 6.32625 7.23 4.51875
X 8.13375 9.0375 3.615
X 9.0375 7.23 5.4225
X 7.23 9.0375 4.51875
X 8.13375 7.23 6.32625
X 8.13375 9.0375 7.23
X 10.845 9.0375 9.0375
X 9.0375 10.845 8.13375
X 9.94125 9.0375 9.94125
X 9.94125 10.845 9.0375
X 10.845 9.0375 10.845
X 3.615 4.51875 5.4225
X 4.51875 5.4225 7.23
X 7.23 7.23 9.0375
X 8.13375 8.13375 10.845
X 9.0375 9.94125 12.6525
X 9.94125 5.4225 0
X 5.4225 7.23 1.8075
X 6.32625 8.13375 3.615
X 7.23 9.94125 5.4225
X 8.13375 10.845 7.23
X 10.845 12.6525 1.8075
X 4.51875 6.32625 3.615
X 5.4225 8.13375 5.4225
X 6.32625 9.0375 7.23
X 9.0375 10.845 9.0375
X 9.94125 11.7488 10.845
X 3.615 6.32625 5.4225
X 4.51875 7.23 7.23
X 7.23 9.0375 9.0375
X 8.13375 9.94125 10.845
X 9.0375 11.7488 12.6525
X 11.7488 0 0
X 7.23 1.8075 1.8075
X 8.13375 2.71125 3.615
X 9.0375 4.51875 5.4225
X 9.94125 5.4225 7.23
X 12.6525 7.23 1.8075
X 6.32625 0.90375 3.615
X 7.23 2.71125 5.4225
X 8.13375 3.615 7.23
X 10.845 5.4225 9.0375
X 11.7488 6.32625 10.845
X 5.4225 0.90375 5.4225
X 6.32625 1.8075 7.23
X 9.0375 3.615 9.0375
X 9.94125 4.51875 10.845
X 10.845 6.32625 12.6525
X 11.7488 1.8075 0
X 7.23 3.615 1.8075
X 8.13375 4.51875 3.615
X 9.0375 6.32625 5.4225
X 9.94125 7.23 7.23
X 12.6525 9.0375 1.8075
X 7.23 2.71125 4.51875
X 7.23 5.4225 5.4225
X 9.0375 5.4225 8.13375
X 10.845 8.13375 9.0375
X 12.6525 8.13375 4.51875
X 5.4225 3.615 5.4225
X 7.23 3.615 8.13375
X 9.0375 6.32625 9.0375
X 10.845 6.32625 11.7488
X 10.845 9.0375 12.6525
X 5.4225 3.615 0.90375
X 7.23 6.32625 1.8075
X 9.0375 6.32625 4.51875
X 9.0375 9.0375 5.4225
X 10.845 9.0375 8.13375
X 12.6525 4.51875 1.8075
X 7.23 4.51875 4.51875
X 7.23 7.23 5.4225
X 9.0375 7.23 8.13375
X 10.845 9.94125 9.0375
X 12.6525 9.94125 4.51875
X 5.4225 5.4225 5.4225
X 7.23 5.4225 8.13375
X 9.0375 8.13375 9.0375
X 10.845 8.13375 11.7488
X 10.845 10.845 12.6525
X 5.4225 5.4225 0.90375
X 7.23 8.13375 1.8075
X 9.0375 8.13375 4.51875
X 9.0375 10.845 5.4225
X 10.845 10.845 8.13375
X 12.6525 6.32625 1.8075
X 7.23 6.32625 4.51875
X 7.23 9.0375 5.4225
X 9.0375 9.0375 8.13375
X 10.845 11.7488 9.0375
X 12.6525 11.7488 4.51875
X 5.4225 7.23 5.4225
X 7.23 7.23 8.13375
X 9.0375 9.94125 9.0375
X 10.845 9.94125 11.7488
X 10.845 12.6525 12.6525
255
Replica 5 Energy = nan eV
X 0 0.6025 0.6025
X 1.205 1.205 0.6025
X 1.8075 0 1.205
X 0.6025 1.8075 1.205
X 0 0.6025 3.0125
X 1.205 1.205 3.0125
X 1.8075 0 3.615
X 0.6025 1.8075 3.615
X 0 0.6025 5.4225
X 1.205 1.205 5.4225
X 1.8075 0 6.025
X 0.6025 1.8075 6.025
X 0 0.6025 7.8325
X 1.205 1.205 7.8325
X 1.8075 0 8.435
X 0.6025 1.8075 8.435
X 0 3.0125 0.6025
X 1.205 3.615 0.6025
X 1.8075 2.41 1.205
X 0.6025 4.2175 1.205
X 0 3.0125 3.0125
X 1.205 4.82 4.2175
X 3.0125 3.615 4.82
X 1.8075 5.4225 4.82
X 1.205 4.2175 6.6275
X 2.41 4.82 6.6275
X 3.0125 3.615 7.23
X 1.8075 5.4225 7.23
X 1.205 4.2175 9.0375
X 2.41 4.82 9.0375
X 3.0125 3.615 9.64
X 1.8075 5.4225 9.64
X 1.205 6.6275 1.8075
X 2.41 7.23 1.8075
X 3.0125 6.025 2.41
X 1.8075 7.8325 2.41
X 1.205 6.6275 4.2175
X 2.41 7.23 4.2175
X 3.0125 6.025 4.82
X 1.8075 7.8325 4.82
X 1.205 6.6275 6.6275
X 2.41 7.23 6.6275
X 3.0125 6.025 9.0375
X 3.0125 8.435 8.435
X 3.0125 7.8325 9.64
X 3.615 9.0375 10.2425
X 3.615 7.23 11.4475
X 3.0125 8.435 10.845
X 3.0125 10.2425 2.41
X 3.615 11.4475 3.0125
X 3.615 9.64 4.2175
X 3.0125 10.845 3.615
X 3.0125 10.2425 4.82
X 3.615 11.4475 5.4225
X 3.615 9.64 6.6275
X 3.0125 10.845 6.025
X 3.0125 10.2425 7.23
X 3.615 11.4475 7.8325
X 3.615 9.64 9.0375
X 3.0125 10.845 8.435
X 3.0125 10.2425 9.64
X 3.615 11.4475 10.2425
X 3.615 9.64 11.4475
X 3.0125 10.845 12.05
X 6.6275 4.2175 3.615
X 7.23 5.4225 4.2175
X 7.23 3.615 5.4225
X 6.6275 4.82 4.82
X 6.6275 4.2175 6.025
X 7.23 5.4225 6.6275
X 7.23 3.615 7.8325
X 6.6275 4.82 7.23
X 6.6275 4.2175 8.435
X 7.23 5.4225 9.0375
X 7.23 3.615 10.2425
X 6.6275 4.82 9.64
X 6.6275 4.2175 10.845
X 7.23 5.4225 11.4475
X 7.23 3.615 12.6525
X 6.6275 4.82 12.05
X 6.6275 6.6275 3.615
X 7.23 7.8325 4.2175
X 7.23 6.025 5.4225
X 6.6275 7.23 4.82
X 6.6275 6.6275 6.025
X 3.615 4.2175 2.41
X 4.2175 2.41 4.2175
X 2.41 4.2175 3.615
X 3.0125 2.41 5.4225
X 3.615 4.2175 4.82
X 4.2175 3.615 7.8325
X 3.615 5.4225 7.23
X 4.2175 3.615 9.0375
X 4.82 5.4225 8.435
X 5.4225 3.615 10.2425
X 3.615 5.4225 10.845
X 5.4225 7.23 3.0125
X 6.025 9.0375 2.41
X 6.6275 7.23 4.2175
X 4.82 9.0375 3.615
X 5.4225 7.23 5.4225
X 7.23 10.2425 6.025
X 7.8325 8.435 7.8325
X 6.025 10.2425 7.23
X 6.6275 8.435 9.0375
X 7.23 10.2425 8.435
X 7.8325 4.82 6.6275
X 2.41 6.6275 6.025
X 3.0125 4.82 7.8325
X 3.615 6.6275 7.23
X 4.2175 4.82 9.0375
X 2.41 6.6275 9.64
X 4.2175 8.435 1.8075
X 4.82 10.2425 1.205
X 5.4225 8.435 3.0125
X 3.615 10.2425 2.41
X 4.2175 8.435 4.2175
X 6.025 11.4475 4.82
X 6.6275 9.64 6.6275
X 4.82 11.4475 6.025
X 5.4225 9.64 7.8325
X 6.025 11.4475 7.23
X 6.6275 10.845 10.2425
X 6.025 12.6525 9.64
X 6.6275 10.845 11.4475
X 7.23 12.6525 10.845
X 7.8325 10.845 12.6525
X 6.025 12.6525 9.0375
X 4.82 0.6025 0
X 6.6275 0 1.8075
X 4.82 1.8075 1.205
X 5.4225 0 3.0125
X 6.025 1.8075 3.615
X 7.8325 1.205 5.4225
X 6.025 3.0125 4.82
X 6.6275 1.205 6.6275
X 7.23 3.0125 6.025
X 7.8325 1.205 7.8325
X 7.23 4.2175 8.435
X 7.8325 2.41 10.2425
X 8.435 4.2175 9.64
X 9.0375 2.41 11.4475
X 7.23 4.2175 10.845
X 7.8325 6.025 4.2175
X 9.64 7.8325 3.615
X 10.2425 6.025 5.4225
X 8.435 7.8325 4.82
X 9.0375 6.025 6.6275
X 9.64 7.8325 2.41
X 6.6275 2.41 4.2175
X 4.82 4.2175 3.615
X 5.4225 2.41 5.4225
X 6.025 4.2175 4.82
X 6.6275 2.41 6.6275
X 6.025 5.4225 7.23
X 6.6275 3.615 9.0375
X 7.23 5.4225 8.435
X 7.8325 3.615 10.2425
X 6.025 5.4225 9.64
X 6.6275 7.23 3.0125
X 8.435 9.0375 2.41
X 9.0375 7.23 4.2175
X 7.23 9.0375 3.615
X 7.8325 7.23 5.4225
X 8.435 9.0375 6.025
X 10.2425 8.435 7.8325
X 8.435 10.2425 7.23
X 9.0375 8.435 9.0375
X 9.64 10.2425 8.435
X 10.2425 8.435 10.2425
X 4.82 6.025 6.6275
X 5.4225 6.025 8.435
X 7.8325 7.8325 9.64
X 8.435 7.8325 11.4475
X 8.435 9.64 12.6525
X 9.0375 7.23 0
X 6.6275 9.0375 1.205
X 7.23 9.0375 3.0125
X 7.23 10.845 4.2175
X 7.8325 10.845 6.025
X 10.2425 12.6525 2.41
X 6.025 7.8325 4.2175
X 6.025 9.64 5.4225
X 6.6275 9.64 7.23
X 9.0375 11.4475 8.435
X 9.64 11.4475 10.2425
X 4.82 8.435 6.6275
X 5.4225 8.435 8.435
X 7.8325 10.2425 9.64
X 8.435 10.2425 11.4475
X 8.435 12.05 12.6525
X 11.4475 0 0
X 9.0375 1.8075 1.205
X 9.64 1.8075 3.0125
X 9.64 3.615 4.2175
X 10.2425 3.615 6.025
X 12.6525 5.4225 2.41
X 8.435 0.6025 4.2175
X 8.435 2.41 5.4225
X 9.0375 2.41 7.23
X 11.4475 4.2175 8.435
X 12.05 4.2175 10.2425
X 7.23 1.205 6.6275
X 7.8325 1.205 8.435
X 10.2425 3.0125 9.64
X 10.845 3.0125 11.4475
X 10.845 4.82 12.6525
X 11.4475 2.41 0
X 9.0375 4.2175 1.205
X 9.64 4.2175 3.0125
X 9.64 6.025 4.2175
X 10.2425 6.025 6.025
X 12.6525 7.8325 2.41
X 9.0375 3.0125 4.82
X 8.435 5.4225 5.4225
X 9.64 4.82 7.8325
X 11.4475 7.23 8.435
X 12.6525 6.6275 6.025
X 7.23 4.2175 6.6275
X 8.435 3.615 9.0375
X 10.2425 6.025 9.64
X 11.4475 5.4225 12.05
X 10.845 7.8325 12.6525
X 7.23 4.82 0.6025
X 9.0375 7.23 1.205
X 10.2425 6.6275 3.615
X 9.64 9.0375 4.2175
X 10.845 8.435 6.6275
X 12.6525 6.025 2.41
X 9.0375 5.4225 4.82
X 8.435 7.8325 5.4225
X 9.64 7.23 7.8325
X 11.4475 9.64 8.435
X 12.6525 9.0375 6.025
X 7.23 6.6275 6.6275
X 8.435 6.025 9.0375
X 10.2425 8.435 9.64
X 11.4475 7.8325 12.05
X 10.845 10.2425 12.6525
X 7.23 7.23 0.6025
X 9.0375 9.64 1.205
X 10.2425 9.0375 3.615
X 9.64 11.4475 4.2175
X 10.845 10.845 6.6275
X 12.6525 8.435 2.41
X 9.0375 7.8325 4.82
X 8.435 10.2425 5.4225
X 9.64 9.64 7.8325
X 11.4475 12.05 8.435
X 12.6525 11.4475 6.025
X 7.23 9.0375 6.6275
X 8.435 8.435 9.0375
X 10.2425 10.845 9.64
X 11.4475 10.2425 12.05
X 10.845 12.6525 12.6525
255
Replica 6 Energy = 3.39081e+19 eV
X 0 0.30125 0.30125
X 1.50625 1.50625 0.30125
X 1.8075 0 1.50625
X 0.30125 1.8075 1.50625
X 0 0.30125 3.31375
X 1.50625 1.50625 3.31375
X 1.8075 0 4.51875
X 0.30125 1.8075 4.51875
X 0 0.30125 6.32625
X 1.50625 1.50625 6.32625
X 1.8075 0 7.53125
X 0.30125 1.8075 7.53125
X 0 0.30125 9.33875
X 1.50625 1.50625 9.33875
X 1.8075 0 10.5438
X 0.30125 1.8075 10.5438
X 0 3.31375 0.30125
X 1.50625 4.51875 0.30125
X 1.8075 3.0125 1.50625
X 0.30125 4.82 1.50625
X 0 3.31375 3.31375
X 1.50625 5.12125 3.91625
X 2.41 3.615 5.12125
X 0.90375 5.4225 5.12125
X 0.6025 3.91625 6.92875
X 2.10875 5.12125 6.92875
X 2.41 3.615 8.13375
X 0.90375 5.4225 8.13375
X 0.6025 3.91625 9.94125
X 2.10875 5.12125 9.94125
X 2.41 3.615 11.1463
X 0.90375 5.4225 11.1463
X 0.6025 6.92875 0.90375
X 2.10875 8.13375 0.90375
X 2.41 6.6275 2.10875
X 0.90375 8.435 2.10875
X 0.6025 6.92875 3.91625
X 2.10875 8.13375 3.91625
X 2.41 6.6275 5.12125
X 0.90375 8.435 5.12125
X 0.6025 6.92875 6.92875
X 2.10875 8.13375 6.92875
X 2.41 6.6275 9.0375
X 1.50625 8.73625 8.73625
X 1.50625 7.53125 10.2425
X 2.71125 9.0375 10.5438
X 2.71125 7.23 12.05
X 1.50625 8.73625 11.7488
X 1.50625 10.5438 1.205
X 2.71125 12.05 1.50625
X 2.71125 10.2425 3.0125
X 1.50625 11.7488 2.71125
X 1.50625 10.5438 4.2175
X 2.71125 12.05 4.51875
X 2.71125 10.2425 6.025
X 1.50625 11.7488 5.72375
X 1.50625 10.5438 7.23
X 2.71125 12.05 7.53125
X 2.71125 10.2425 9.0375
X 1.50625 11.7488 8.73625
X 1.50625 10.5438 10.2425
X 2.71125 12.05 10.5438
X 2.71125 10.2425 12.05
X 1.50625 11.7488 12.3513
X 5.12125 2.10875 1.8075
X 6.32625 3.615 2.10875
X 6.32625 1.8075 3.615
X 5.12125 3.31375 3.31375
X 5.12125 2.10875 4.82
X 6.32625 3.615 5.12125
X 6.32625 1.8075 6.6275
X 5.12125 3.31375 6.32625
X 5.12125 2.10875 7.8325
X 6.32625 3.615 8.13375
X 6.32625 1.8075 9.64
X 5.12125 3.31375 9.33875
X 5.12125 2.10875 10.845
X 6.32625 3.615 11.1463
X 6.32625 1.8075 12.6525
X 5.12125 3.31375 12.3513
X 5.12125 5.12125 1.8075
X 6.32625 6.6275 2.10875
X 6.32625 4.82 3.615
X 5.12125 6.32625 3.31375
X 5.12125 5.12125 4.82
X 4.51875 4.82 3.0125